[Molden Format]
[Title]
 Molden file created by orca_2mkl for BaseName=test

[Atoms] AU
C    1   6          0.0000000000         0.0000000000         0.0000000000 
O    2   8          2.1319890243         0.0000000000         0.0000000000 
[GTO]
  1 0
s   3 1.0 
       71.6168370000         2.7078144539
       13.0450960000         2.6188801561
        3.5305122000         0.8161905763
s   3 1.0 
        2.9412494000        -0.1600171900
        0.6834831000         0.2140359176
        0.2222899000         0.1615360892
p   3 1.0 
        2.9412494000         0.8560445069
        0.6834831000         0.5383037696
        0.2222899000         0.0852763521

  2 0
s   3 1.0 
      130.7093200000         4.2519432829
       23.8088610000         4.1122937184
        6.4436083000         1.2816225326
s   3 1.0 
        5.0331513000        -0.2394130030
        1.1695961000         0.3202342291
        0.3803890000         0.2416855708
p   3 1.0 
        5.0331513000         1.6754501181
        1.1695961000         1.0535680080
        0.3803890000         0.1669028981

[5D]
[7F]
[9G]
[MO]
 Sym=     1a
 Ene= -2.04242345894100E+01
 Spin= Alpha
 Occup= 2.000000
  1       0.000396614117
  2      -0.008707596034
  3      -0.007377986086
  4       0.000000000000
  5      -0.000000000000
  6       0.994149674943
  7       0.027780059479
  8      -0.006835515648
  9      -0.000000000000
 10       0.000000000000
 Sym=     1a
 Ene= -1.10934032884570E+01
 Spin= Alpha
 Occup= 2.000000
  1      -0.993602783439
  2      -0.026320889699
  3      -0.007013179623
  4       0.000000000000
  5      -0.000000000000
  6       0.000214164124
  7       0.006935723876
  8      -0.000978331472
  9       0.000000000000
 10      -0.000000000000
 Sym=     1a
 Ene= -1.45995642103335E+00
 Spin= Alpha
 Occup= 2.000000
  1       0.126552181963
  2      -0.240294937146
  3      -0.166937026649
  4       0.000000000000
  5      -0.000000000000
  6       0.222428333762
  7      -0.766367950890
  8       0.217971772509
  9       0.000000000000
 10       0.000000000000
 Sym=     1a
 Ene= -6.99449149553292E-01
 Spin= Alpha
 Occup= 2.000000
  1      -0.166033996742
  2       0.538670781439
  3       0.067859306356
  4       0.000000000000
  5      -0.000000000000
  6       0.132001212325
  7      -0.645860515036
  8      -0.627720745362
  9      -0.000000000000
 10       0.000000000000
 Sym=     1a
 Ene= -5.51096401762411E-01
 Spin= Alpha
 Occup= 2.000000
  1      -0.000000000000
  2       0.000000000000
  3       0.000000000000
  4       0.310675829897
  5      -0.319386512527
  6       0.000000000000
  7      -0.000000000000
  8       0.000000000000
  9       0.551484478576
 10      -0.566946918219
 Sym=     1a
 Ene= -5.51096401762409E-01
 Spin= Alpha
 Occup= 2.000000
  1      -0.000000000000
  2       0.000000000000
  3       0.000000000000
  4      -0.319386512527
  5      -0.310675829897
  6       0.000000000000
  7      -0.000000000000
  8       0.000000000000
  9      -0.566946918219
 10      -0.551484478576
 Sym=     1a
 Ene= -4.46461334925723E-01
 Spin= Alpha
 Occup= 2.000000
  1      -0.167119438608
  2       0.760911518022
  3      -0.572799563049
  4      -0.000000000000
  5       0.000000000000
  6       0.001092070036
  7       0.038168359899
  8       0.434079077483
  9       0.000000000000
 10       0.000000000000
 Sym=     1a
 Ene= 3.13408810822132E-01
 Spin= Alpha
 Occup= 0.000000
  1      -0.000000000000
  2       0.000000000000
  3       0.000000000000
  4      -0.019180987638
  5       0.931414796047
  6       0.000000000000
  7      -0.000000000000
  8      -0.000000000000
  9       0.013670626908
 10      -0.663835690529
 Sym=     1a
 Ene= 3.13408810822133E-01
 Spin= Alpha
 Occup= 0.000000
  1      -0.000000000000
  2       0.000000000000
  3      -0.000000000000
  4       0.931414796047
  5       0.019180987638
  6      -0.000000000000
  7       0.000000000000
  8       0.000000000000
  9      -0.663835690529
 10      -0.013670626908
 Sym=     1a
 Ene= 1.04007350364150E+00
 Spin= Alpha
 Occup= 0.000000
  1      -0.121925839272
  2       0.973666632555
  3       1.228929223748
  4      -0.000000000000
  5       0.000000000000
  6       0.128274941468
  7      -1.085207552847
  8       0.969191118173
  9      -0.000000000000
 10       0.000000000000
